# vtk DataFile Version 2.0
Output
ASCII
DATASET UNSTRUCTURED_GRID
POINTS        292          Float
52.5        57.5       0
37.5        57.5       0
52.5        53.75       0
37.5        53.75       0
14.9551        11.4175       0
13.5825        13.7051       0
11.25        15       0
8.58253        14.9551       0
6.29487        13.5825       0
5        11.25       0
5.04487        8.58253       0
6.41747        6.29487       0
8.75        5       0
11.4175        5.04487       0
13.7051        6.41747       0
15        8.75       0
32.5        0       0
0        0       0
32.5        20       0
27.5        20       0
27.5        48       0
28.0858        49.4142       0
29.5        50       0
72.5        50       0
72.5        61.25       0
16.25        61.25       0
16.25        50       0
16.25        20       0
0        20       0
49.5        57.5       0
46.5        57.5       0
43.5        57.5       0
40.5        57.5       0
40.5        53.75       0
43.5        53.75       0
46.5        53.75       0
49.5        53.75       0
29.7917        0       0
27.0833        0       0
24.375        0       0
21.6667        0       0
18.9583        0       0
16.25        0       0
13.5417        0       0
10.8333        0       0
8.125        0       0
5.41667        0       0
2.70833        0       0
32.5        17.1429       0
32.5        14.2857       0
32.5        11.4286       0
32.5        8.57143       0
32.5        5.71429       0
32.5        2.85714       0
30        20       0
27.5        45.2       0
27.5        42.4       0
27.5        39.6       0
27.5        36.8       0
27.5        34       0
27.5        31.2       0
27.5        28.4       0
27.5        25.6       0
27.5        22.8       0
69.6333        50       0
66.7667        50       0
63.9        50       0
61.0333        50       0
58.1667        50       0
55.3        50       0
52.4333        50       0
49.5667        50       0
46.7        50       0
43.8333        50       0
40.9667        50       0
38.1        50       0
35.2333        50       0
32.3667        50       0
72.5        58.4375       0
72.5        55.625       0
72.5        52.8125       0
19.0625        61.25       0
21.875        61.25       0
24.6875        61.25       0
27.5        61.25       0
30.3125        61.25       0
33.125        61.25       0
35.9375        61.25       0
38.75        61.25       0
41.5625        61.25       0
44.375        61.25       0
47.1875        61.25       0
50        61.25       0
52.8125        61.25       0
55.625        61.25       0
58.4375        61.25       0
61.25        61.25       0
64.0625        61.25       0
66.875        61.25       0
69.6875        61.25       0
16.25        52.8125       0
16.25        55.625       0
16.25        58.4375       0
16.25        22.7273       0
16.25        25.4546       0
16.25        28.1818       0
16.25        30.9091       0
16.25        33.6364       0
16.25        36.3636       0
16.25        39.0909       0
16.25        41.8182       0
16.25        44.5455       0
16.25        47.2727       0
2.70833        20       0
5.41667        20       0
8.125        20       0
10.8333        20       0
13.5417        20       0
0        2.85714       0
0        5.71429       0
0        8.57143       0
0        11.4286       0
0        14.2857       0
0        17.1429       0
27.8692        52.0322       0
2.89403        14.1087       0
2.64198        11.4201       0
10.8178        17.6939       0
17.7292        10.082       0
5.7282        2.94626       0
8.33511        2.60205       0
17.0116        13.9168       0
13.2774        16.4421       0
16.9069        6.89076       0
13.4169        4.03569       0
27.3113        2.37042       0
22.1943        2.07501       0
19.5191        2.31575       0
10.9807        2.42599       0
2.86499        2.96331       0
5.65201        17.042       0
24.7345        2.15398       0
16.6481        2.9609       0
19.4586        49.9181       0
18.4191        26.0826       0
18.4254        28.8206       0
18.4233        31.5467       0
18.3999        34.2606       0
18.3569        36.9336       0
18.2868        39.5594       0
18.1985        42.1283       0
18.1514        44.6355       0
18.3686        47.1302       0
18.4106        23.3328       0
30.8479        53.3936       0
25.8026        52.0739       0
22.6598        4.07405       0
18.5796        5.46405       0
8.21753        17.4156       0
20.4923        4.53575       0
18.0426        18.2648       0
20.6203        34.9043       0
20.472        40.1514       0
19.9126        46.6156       0
20.6433        29.4442       0
20.6418        26.6906       0
20.6476        32.1775       0
20.1329        44.8507       0
20.5662        37.5592       0
20.6291        23.9163       0
21.3029        47.7403       0
24.4535        46.6081       0
25.1884        27.8528       0
25.1708        25.0421       0
25.2058        30.6404       0
25.215        33.4234       0
25.2139        36.1979       0
25.1242        41.6535       0
24.9193        44.2731       0
25.1476        22.2168       0
25.1902        38.9426       0
19.1178        53.0377       0
69.6428        55.6068       0
69.6397        52.8026       0
21.8067        58.6312       0
24.6627        58.6275       0
30.4755        58.6436       0
33.3917        58.8231       0
36.2819        59.3601       0
47.2366        59.5749       0
55.3616        57.8612       0
58.2542        58.1173       0
61.116        58.2703       0
63.9652        58.3514       0
19.0118        55.8295       0
27.5706        58.544       0
2.91015        5.81632       0
29.7411        8.10702       0
29.548        10.8237       0
2.85575        17.0257       0
61.088        52.6612       0
63.9268        52.7405       0
58.266        52.5246       0
55.3945        54.6964       0
33.9721        53.1523       0
13.2914        18.1144       0
26.3376        53.462       0
25.4841        49.8309       0
29.812        16.8491       0
33.8411        56.3744       0
15.7843        18.1538       0
18.913        8.62547       0
22.2108        9.08351       0
22.1421        45.587       0
24.8974        4.34496       0
22.2633        51.0415       0
22.5438        43.3383       0
20.5812        21.14       0
25.089        19.39       0
69.6572        58.4165       0
19.0037        58.541       0
63.9393        55.5104       0
21.7541        56.0625       0
27.6476        55.7109       0
61.0981        55.386       0
24.5401        56.1262       0
58.2568        55.1532       0
29.6363        13.7935       0
2.65672        8.4681       0
26.2498        10.1491       0
27.0331        7.44124       0
21.7967        53.5088       0
66.7838        52.7771       0
40.7513        51.8877       0
66.8157        58.391       0
14.9696        15.9999       0
26.9339        13.5247       0
66.7964        55.5669       0
30.7358        56.1001       0
23.3842        48.7551       0
19.8093        11.4294       0
22.7487        40.8489       0
29.9034        5.33019       0
28.8802        53.6428       0
23.9084        11.1147       0
43.6654        51.9062       0
24.4014        51.7293       0
24.2458        53.7936       0
17.4913        15.9832       0
22.8527        38.2324       0
24.5358        13.6211       0
15.1654        5.09373       0
22.8995        35.5416       0
13.59        2.30236       0
19.4598        14.0299       0
22.4025        16.1964       0
22.918        32.7996       0
22.9171        30.0446       0
21.8056        13.4444       0
22.714        18.9297       0
22.9075        27.2723       0
22.8903        24.4748       0
22.851        21.6648       0
27.3077        16.6458       0
18.3637        20.578       0
29.9216        2.6151       0
45.3069        59.3445       0
42.8797        59.1123       0
40.7963        58.5741       0
55.4456        52.3213       0
52.5425        52.0253       0
49.5391        51.9416       0
46.5974        51.9174       0
37.9424        51.8373       0
35.571        51.5841       0
38.3866        60.0521       0
39.5579        59.3417       0
26.7922        50.854       0
17.1068        11.9599       0
24.8963        16.4211       0
18.8826        12.4444       0
19.9667        16.1615       0
20.3691        7.42059       0
21.8078        6.42271       0
27.3321        4.86144       0
20.8233        10.2125       0
22.2702        11.6596       0
20.3103        42.5979       0
20.3661        18.5691       0
23.6571        7.99283       0
22.9408        5.62134       0
24.6376        6.40257       0
CELLS      231   1155
4     35        272        271        36
4     209        187        186        238
4     124        22        154        243
4     100        181        194        101
4     26        143        181        100
4     191        226        224        192
4     269        270        70        69
4     138        13        12        130
4     138        44        43        253
4     46        45        130        129
4     196        119        118        139
4     46        129        139        47
4     196        228        120        119
4     8        140        199        125
4     140        114        113        199
4     127        116        115        158
4     210        205        132        235
4     4        278        131        5
4     250        244        229        236
4     227        208        263        236
4     214        141        135        284
4     160        264        27        210
4     169        165        144        153
4     148        147        161        168
4     277        21        22        124
4     237        234        193        221
4     91        90        266        189
4     32        268        276        1
4     125        122        121        126
4     190        0        2        203
4     92        29        0        93
4     267        268        32        31
4     3        1        209        204
4     3        273        233        33
4     33        233        245        34
4     34        245        272        35
4     16        53        265        37
4     52        51        197        242
4     136        156        159        137
4     136        40        39        141
4     41        137        142        42
4     253        43        42        142
4     130        45        44        138
4     139        129        11        196
4     48        18        54        208
4     48        208        227        49
4     285        211        282        212
4     156        136        141        214
4     53        52        242        265
4     236        229        198        227
4     162        287        150        149
4     178        177        56        55
4     172        174        257        260
4     146        145        164        166
4     165        164        145        144
4     64        23        80        183
4     183        80        79        182
4     192        193        97        96
4     66        201        200        67
4     202        226        203        269
4     71        70        270        271
4     72        71        271        272
4     73        72        272        245
4     74        73        245        233
4     75        74        233        273
4     75        273        274        76
4     77        204        154        22
4     24        99        219        78
4     102        220        81        25
4     82        184        185        83
4     186        195        223        238
4     186        187        86        85
4     187        188        87        86
4     89        276        268        267
4     267        266        90        89
4     92        91        189        29
4     93        0        190        94
4     190        191        95        94
4     191        192        96        95
4     221        224        200        201
4     219        182        79        78
4     207        20        21        277
4     184        220        194        222
4     81        220        184        82
4     103        153        144        104
4     104        144        145        105
4     105        145        146        106
4     106        146        147        107
4     107        147        148        108
4     108        148        149        109
4     109        149        150        110
4     110        150        151        111
4     152        163        170        143
4     113        28        123        199
4     140        158        115        114
4     205        127        6        132
4     118        17        47        139
4     228        196        11        10
4     126        121        120        228
4     122        125        199        123
4     83        185        195        84
4     9        8        125        126
4     158        140        8        7
4     10        9        126        228
4     7        6        127        158
4     15        128        278        4
4     128        15        133        211
4     12        11        129        130
4     117        205        210        27
4     132        6        5        235
4     235        5        131        248
4     133        15        14        251
4     40        136        137        41
4     251        134        253        142
4     14        13        134        251
4     135        38        37        265
4     282        157        159        283
4     141        39        38        135
4     157        142        137        159
4     251        142        157        133
4     143        26        112        152
4     152        112        111        151
4     153        103        27        264
4     172        173        62        61
4     174        175        256        257
4     175        174        60        59
4     176        180        249        252
4     177        180        57        56
4     151        167        163        152
4     171        178        55        20
4     173        179        63        62
4     204        77        76        274
4     231        222        194        181
4     207        277        155        246
4     211        133        157        282
4     289        283        290        291
4     279        250        236        263
4     179        218        19        63
4     147        146        166        161
4     176        175        59        58
4     168        162        149        148
4     216        241        177        178
4     167        151        150        287
4     174        172        61        60
4     260        261        173        172
4     180        177        241        249
4     175        176        252        256
4     153        264        217        169
4     213        171        239        170
4     207        239        171        20
4     261        262        179        173
4     58        57        180        176
4     178        171        213        216
4     259        262        217        288
4     215        143        170        239
4     64        183        232        65
4     222        225        185        184
4     186        85        84        195
4     204        209        238        154
4     188        1        276        275
4     30        29        189        266
4     67        200        202        68
4     192        224        221        193
4     237        221        201        232
4     98        234        219        99
4     98        97        193        234
4     215        231        181        143
4     155        206        247        246
4     284        242        197        230
4     197        51        50        198
4     50        49        227        198
4     197        198        229        230
4     201        66        65        232
4     237        182        219        234
4     269        69        68        202
4     2        270        269        203
4     205        117        116        127
4     124        206        155        277
4     54        19        263        208
4     262        259        218        179
4     188        187        209        1
4     230        229        289        291
4     213        170        163        167
4     242        284        135        265
4     216        213        167        287
4     241        216        287        162
4     160        248        281        288
4     248        131        254        281
4     263        19        218        279
4     220        102        101        194
4     243        154        238        223
4     225        223        195        185
4     206        223        225        247
4     226        191        190        203
4     200        224        226        202
4     246        247        231        215
4     289        229        244        212
4     183        182        237        232
4     222        231        247        225
4     243        223        206        124
4     160        210        235        248
4     250        258        286        244
4     207        246        215        239
4     128        211        285        240
4     284        230        291        214
4     249        241        162        168
4     286        285        212        244
4     254        131        278        280
4     252        249        168        161
4     250        279        255        258
4     259        288        281        255
4     256        252        161        166
4     281        254        258        255
4     259        255        279        218
4     257        256        166        164
4     240        258        254        280
4     260        257        164        165
4     286        258        240        285
4     261        260        165        169
4     262        261        169        217
4     264        160        288        217
4     266        267        31        30
4     276        89        88        275
4     270        2        36        271
4     274        273        3        204
4     275        88        87        188
4     280        278        128        240
4     134        13        138        253
4     283        159        156        290
4     282        283        289        212
4     290        156        214        291
CELL_TYPES      231
9
9
9
9
9
9
9
9
9
9
9
9
9
9
9
9
9
9
9
9
9
9
9
9
9
9
9
9
9
9
9
9
9
9
9
9
9
9
9
9
9
9
9
9
9
9
9
9
9
9
9
9
9
9
9
9
9
9
9
9
9
9
9
9
9
9
9
9
9
9
9
9
9
9
9
9
9
9
9
9
9
9
9
9
9
9
9
9
9
9
9
9
9
9
9
9
9
9
9
9
9
9
9
9
9
9
9
9
9
9
9
9
9
9
9
9
9
9
9
9
9
9
9
9
9
9
9
9
9
9
9
9
9
9
9
9
9
9
9
9
9
9
9
9
9
9
9
9
9
9
9
9
9
9
9
9
9
9
9
9
9
9
9
9
9
9
9
9
9
9
9
9
9
9
9
9
9
9
9
9
9
9
9
9
9
9
9
9
9
9
9
9
9
9
9
9
9
9
9
9
9
9
9
9
9
9
9
9
9
9
9
9
9
9
9
9
9
9
9
9
9
9
9
9
9
9
9
9
9
9
9
POINT_DATA      292
SCALARS SX_INTEGRATION_POINTS_SOLUTION FLOAT
LOOKUP_TABLE default
1158.87
886.231
888.016
1159.61
-585.599
-2497.98
-1451.81
1745.12
2149.24
1032.35
-379.586
-1567.72
-1455.38
340.026
1456.4
1121.23
-1436.8
1071.86
-402.508
-3027.59
-128.599
494.094
981.114
1325.27
1326.93
30.4711
92.5858
6736.57
-405.353
1407.45
1512.09
1531.5
1558.1
1513.27
1490.61
1496.49
1542.77
-1033.74
-685.569
-326.391
16.3038
315.34
529.859
424.722
142.977
-76.6962
82.5547
465.594
-317.333
451.633
99.3562
-75.9482
-121.049
-290.127
-1526.41
-199.574
-277.867
-323.917
-375.897
-432.248
-491.115
-556.872
-768.455
-1738.41
1090.44
1017.37
923.956
924.807
1017.4
1148.22
1206.95
1188.02
1158.45
1165.61
1195.83
1285.6
1220.45
1129.4
630.447
673.405
719.57
133.016
391.462
706.874
931.73
1056.77
1152.2
1275.84
1226.39
1214.25
1164.23
1175.72
1191.1
1189.45
1050.62
993.212
919.665
926.021
946.949
1234.92
180.47
102.884
74.3989
915.372
689.646
593.798
560.595
493.185
413.614
332.269
248.838
169.864
72.311
-572.095
-609.18
-507.89
2462.3
5629.81
184.882
-134.906
-368.352
225.761
115.963
-90.2619
863.941
903.288
355.86
1979.88
98.8006
-103.951
-31.2493
-1529.35
-448.636
573.852
483.477
-243.116
-2.2034
-25.0845
37.5279
55.6679
456.596
-173.121
117.224
244.928
-443.419
-635.044
344.322
-18.4657
-12.5919
10.9311
-216.134
3.42127
37.8789
259.702
812.251
817.225
141.182
382.547
677.114
136.149
1098.14
440.095
-19.3463
209.391
330.189
-23.1042
493.739
16.6183
-3.91568
201.825
148.508
-18.3781
299.06
-165.608
483.262
-372.502
212.735
-55.7102
-171.699
-491.317
1.42575
247.492
748.641
857.996
413.426
694.015
881.957
997.127
1028.6
1328.23
834.473
841.828
881.088
890.938
194.039
825.795
-707.044
65.285
332.889
155.641
891.043
889.334
886.482
757.739
796.096
3245.17
874.486
407.555
-39.795
723.444
2781.7
449.652
407.956
-37.4466
92.5495
438.32
-211.473
2008.23
-971.782
760.989
180.045
851.094
367.868
829.037
840.423
677.085
791.149
651.2
-266.335
629.307
199.969
490.234
859.127
1305.87
856.745
-1135.07
795.921
748.128
833.577
240.52
-252.653
-41.5286
11.0046
814.546
550.137
1322.22
623.093
648.034
-530.165
-22.8052
563.894
354.501
-21.1192
-31.0705
-544.827
521.254
-26.2347
-34.9814
51.8583
-133.607
-385.247
-491.209
-110.315
267.974
2520.23
-264.167
1339.3
1353.05
1374.76
922.021
1135.99
1313.55
1323.6
1162.88
1105.78
1244.22
1298.59
825.957
-621.946
635.822
-429.073
-129.638
446.623
292.03
-21.7263
319.729
469.936
131.656
753.249
409.228
299.227
348.485
SCALARS SX_NODAL_SOLUTION FLOAT
LOOKUP_TABLE default
1146.77
808.074
838.165
1145.7
-470.665
-2864.61
-2030.59
2151.24
2600.42
1189.92
-362.972
-1879.13
-2055.11
273.498
1904.18
1386.38
-1918.9
1516.57
-540.23
-4426.09
-330.638
393.689
1049.89
1497.03
1502.04
21.6335
139.775
8504.57
-571.624
1426.4
1556.23
1575.08
1614.95
1574.79
1534.58
1540.68
1615.09
-1296.24
-829.23
-392.022
24.8131
418.385
743.737
609.623
147.494
-185.427
-0.865353
558.151
-469.472
748.499
51.677
-219.183
-248.819
-255.024
-1979.86
-331.293
-481.87
-551.442
-638.799
-733.491
-836.359
-930.366
-1211.61
-2079.57
1161.66
1062.39
935.118
935.432
1055.97
1194.9
1217.83
1160.32
1106.46
1116.57
1168.66
1306.29
1262.26
1194.84
588.506
663.027
595.4
127.033
385.371
717.718
960.419
1106.62
1208.41
1293.71
1217.85
1190.73
1117.19
1110.44
1154.79
1192.51
1117.26
1038.03
931.215
938.774
966.931
1376.95
272.169
123.244
88.6011
820.313
1244.14
1040.57
1000.99
887.481
755.775
616.31
469.902
328.573
142.925
-763.66
-803.55
-712.68
2490.89
6181.47
212.549
-82.1539
-723.837
214.465
15.6584
-142.818
852.022
1049.87
147.83
2184.99
131.655
134.349
195.239
-1588.01
-956.962
522.306
590.534
-148.486
-5.61041
-123.92
-63.9694
74.4896
235.213
-185.525
84.551
313.738
-717.114
-1087.75
629.351
0.315478
15.988
58.3607
-337.256
38.2541
101.066
113.083
793.737
791.291
176.488
441.053
574.732
119.521
1097.4
790.362
3.89624
384.454
611.042
-59.4526
887.687
51.522
26.1877
241.234
211.106
-14.1278
562.171
-81.4676
852.035
-627.845
383.935
-68.3
-244.913
-132.733
18.6332
271.367
756.565
785.731
414.791
673.248
882.241
1042.35
1022.23
1325.7
808.892
837.316
879.293
885.207
206.987
803.092
-807.299
-98.2374
265.477
281.027
893.103
889.172
901.71
727.504
730.384
2030.37
889.874
371.708
593.123
692.38
2575.27
342.846
385.092
-24.037
117.934
436.937
-322.365
2495.92
-1206.24
779.729
199.804
837.791
353.735
826.281
825.35
672.39
770.988
702.388
-190.058
735.555
100.402
493.134
836.456
1311.85
833.949
-1033.48
731.534
720.979
839.626
299.85
-272.686
-38.1689
-1.16689
811.539
492.88
1338.83
631.9
641.998
-718.488
-12.3286
307.516
274.234
-11.7528
-220.674
-579.141
715.014
-19.9948
-32.8968
-65.8874
-68.604
-641.782
-922.73
-504.475
538.122
3033.28
-118.807
1338.93
1365.08
1361.04
965.805
1141.2
1297.19
1341.68
1220.57
1109.1
1252.82
1327.06
794.117
-551.163
714.67
-480.087
-28.3242
392.572
293.067
-20.4287
300.151
573.793
263.337
674.287
346.062
385.125
475.254
SCALARS SY_INTEGRATION_POINTS_SOLUTION FLOAT
LOOKUP_TABLE default
-76.4861
-93.0957
-152.531
-89.1379
4950.41
1923.36
-666.406
904.913
2844.41
4060.67
1490.79
-492.494
-681.199
728.656
3968.4
6841.83
-5811.6
4343.54
-580.102
-12069.8
-2586.16
-1923.81
-280.353
-65.3252
-63.4768
30.3245
2178.2
11954.8
-423.534
30.2201
22.9536
29.1379
32.4043
36.3014
17.6248
16.8151
47.604
-4244.65
-2688.38
-1247.57
129.203
1412.86
2313.85
1891.43
518.238
-386.164
427.147
2005.11
-2188.59
-2918.62
-4454.75
-4950.26
-5307.97
-5418
-2082.49
-4528.15
-5682.36
-6848.01
-8018.48
-9195.92
-10381
-11563.9
-12864
-14802.9
63.9383
46.6838
21.6715
19.99
36.0477
6.25579
-27.0391
6.87721
-23.204
-21.8162
3.18642
-13.9633
2.92765
34.7549
-278.196
-265.542
-248.763
55.5757
9.23271
-27.633
-20.7289
20.2958
29.3662
-44.4793
-14.6199
-6.86084
-24.0887
-37.1862
9.19193
-68.7927
57.7097
48.5353
23.1555
23.5801
27.2493
80.1872
1272.84
539.084
150.925
14890.2
12658
11573.9
10479.5
9348.11
8212.12
7073.56
5914.87
4690.9
3330.2
35.1867
357.612
102.989
-226.419
187.604
3837.99
2943.58
212.504
-365.862
-1099.56
-705.968
-877.174
731.651
1536.2
-449.707
3258.18
-232.43
-344.891
4442.2
1117.81
3387.64
1938.85
-2708.16
265.82
1302.92
540.697
1774.21
1345.71
-1270.2
2570.88
1128.34
8453.03
8366.64
6701.8
6420.69
5364.37
4379.08
3647.56
3287.97
2962.61
8081.04
-51.7563
-913.084
-285.237
1815.18
420.464
966.142
5810.22
1452.24
1803.73
1289.62
2496.82
2923.7
1608.17
1550.86
1678.57
2634.7
206.674
-2236.66
-7831.27
-8066.16
-7541.2
-5733.99
-5534.53
-3614.67
-2420.23
-7580.98
-4554.4
618.63
13.8036
6.47473
25.7262
-106.161
5.43174
30.1732
-18.1745
-40.311
39.44
40.7033
37.4912
25.524
355.745
-122.359
1577.26
-3786.36
-3788.93
137.345
36.4041
32.2102
50.2979
44.1897
8.23211
-295.931
-599.566
-766.36
-2877.7
48.6534
6382.58
2715.22
-117.385
-117.88
-1515.05
-221.05
-366.823
2873.37
-6437.42
18.3887
160.41
42.6955
58.1307
-226.215
39.8386
-214.09
50.2053
-3770.74
1732.5
-2052.51
-2567.64
-22.8767
42.2342
11.0461
42.9063
3292.36
-4020.53
54.0941
-38.7723
-1101.54
1760.82
-889.004
-4204.71
-417.358
-1217.41
2.7328
-607.229
-369.626
5299.89
-1348.63
-3224.61
2460.1
-1646.95
1879.95
2801.97
-514.289
-1906.93
-2141.36
-46.916
-2252.94
-2034.01
-1300.78
-984.335
-5924.52
8041.67
-4185.78
-7.61699
22.0212
25.149
15.5108
-56.3969
12.2844
5.26129
-44.5321
19.5623
4.22484
16.682
-1090.99
3683.58
-3984.12
2591.72
2845.51
1054
552.473
-2691.49
996.354
328.142
1568.03
3090.17
-618.688
-254.485
-1464.09
SCALARS SY_NODAL_SOLUTION FLOAT
LOOKUP_TABLE default
-103.761
-132.219
-209.179
-130.343
5209.52
1487.62
-1198.75
1017.23
3334.69
5130.14
1360.39
-755.211
-913
334.116
4367.75
7876.55
-6357.03
5089.09
-568.164
-13950.8
-2982.14
-2237.55
-236.755
-66.5888
-64.5277
24.0854
2384.63
14371.7
-614.432
42.2927
44.032
63.0056
68.0961
56.5936
31.6088
27.9377
76.4172
-4288.8
-2748.04
-1298.34
85.04
1418.7
2514.31
2062.11
489.743
-616.251
3.75426
1879.56
-1752.86
-2603.67
-4586.85
-5224.11
-5627.05
-5748.21
-1554.75
-4978.51
-6243.72
-7516.37
-8803.17
-10103.1
-11417
-12725.2
-14240.9
-16863.8
84.0109
60.4869
25.5224
23.5419
57.199
19.9223
-38.1087
9.40064
-41.4986
-38.3822
-0.287182
-9.25922
23.8085
70.8752
-370.58
-348.223
-351.944
70.0771
8.64664
-32.8637
-21.1337
37.9094
48.9228
-46.3281
-26.0993
-18.655
-47.9527
-75.0347
10.0096
-93.1058
75.2543
63.748
25.8143
27.8935
32.6042
148.674
1458.31
590.79
157.374
16596.6
13916.9
12746.9
11561.1
10310.3
9042.67
7766.8
6467.49
5098.21
3588.53
27.5569
386.903
-94.0297
-195.02
-705.319
4350.86
3217.61
-166.259
-736.659
-1558.91
-1003.44
-959.723
703.408
1065.88
-548.978
3083.43
-349.247
-329.987
4793.2
1281.29
3439.79
1870.91
-2550.23
336.534
1172.54
388.443
1873.96
1536.58
-1253.27
2601.7
1212.61
7998.67
7193.88
7074.2
6154.52
5370.19
4626.11
3628.06
3277.27
3030.46
8427.91
-54.9544
-939.262
-155.728
1882.79
242.503
883.05
6074.46
2354.94
1799.1
1474.13
2902.25
2892.15
2635.92
1541.25
1936.16
2945.74
244.117
-2319.36
-7436.03
-8033.97
-6496.1
-5836.53
-5280.29
-3786.23
-2533.06
-7030.56
-4338.95
713.485
55.7833
2.04785
25.6952
-122.461
-0.0192627
46.394
-25.2295
-76.1388
32.7553
37.9462
33.5653
24.3254
414.907
-150.444
1808.67
-4097.26
-3931.38
455.834
34.837
30.0526
58.1833
35.2814
9.91204
-1643.41
-566.51
-782.588
-2127.03
56.6781
7210.86
2758.24
-177.374
-239.752
-1362.56
-237.372
-580.77
3029.36
-5802.73
63.8982
176.324
34.001
21.4412
-212.954
27.6664
-227.833
46.4399
-3701.84
1715.98
-1929.1
-2644.12
-1.81367
36.048
14.9522
37.4668
3114.52
-4142.38
46.1288
10.1951
-1189.44
1610.89
-1075.34
-4209.94
-479.049
-1183.6
5.48157
-613.864
-417.064
5562.38
-1357.67
-3579.01
2438.24
-1658.66
1772.34
3012.33
-143.115
-1919.93
-2158.92
-238.803
-1322.57
-2505.86
-2492.82
-2009.03
-6532.17
8096.66
-4087.08
-12.0396
36.0045
57.4223
35.2741
-75.9611
15.2306
6.41032
-67.4124
62.2727
7.73922
31.0543
-1166.11
3984.33
-4170.89
2606.47
3264.08
1018.58
619.016
-2761.97
1031.08
634.537
1702.85
2807.2
-663.879
-121.684
-1459.39
SCALARS SXY_INTEGRATION_POINTS_SOLUTION FLOAT
LOOKUP_TABLE default
-102.147
153.445
119.195
-173.312
407.242
1125.38
1606.01
1930.48
1561.5
1619.28
1129.66
1398.55
974.451
974.05
1839.78
1160.11
721.382
775.648
419.382
1961.6
447.054
-165.426
-74.042
-191.81
190.561
40.326
507.457
4028.3
-193.388
-21.3207
16.5596
12.7542
0.546987
2.97068
4.81369
4.3635
6.00925
320.681
24.4398
-134.745
-156.064
-10.6708
319.286
752.621
922.475
867.258
513.703
557.567
1193.46
628.875
395.374
398.148
55.2323
222.877
2070.39
556.441
576.084
589.255
608.444
634.238
661.84
698.903
812.158
1522.34
-127.892
-50.6937
-14.1128
13.1676
37.5254
49.5222
12.0355
-3.27628
-2.00339
-1.57711
0.971208
-13.3655
-31.7401
-71.6875
-54.7995
27.7458
-95.8688
86.2913
138.949
119.915
65.9658
33.1786
43.2166
-37.1126
-0.883392
-16.5436
-18.9484
-9.19739
-24.1867
-93.8341
-112.965
-48.621
-13.4863
15.1939
45.7985
66.9371
363.484
226.95
99.4896
635.382
29.3321
70.8226
105.753
146.663
190.793
237.84
284.777
335.71
427.808
-148.44
167.785
464.444
714.07
1285.05
306.835
423.717
779.881
556.933
-7.5299
-196.202
158.488
494.374
1256.26
1363.14
623.184
727.07
740.087
82.5757
1182.89
305.58
1146.58
-121.494
-375.1
-41.7325
1024.78
311.082
1181.42
-170.921
250.539
878.852
977.965
740.719
532.976
540.156
720.8
872.943
998.949
677.591
560.445
1044.23
-12.8835
569.272
-118.303
-70.5649
1154.87
-111.72
-427.889
1015.9